,task_id,pretty_formula,band_gap,nelements,spacegroup.number,spacegroup.crystal_system,nsites,unit_cell_formula,volume,structure.lattice,density,e_above_hull,magnetic_type,total_magnetization,thermal,formula
144,mp-23259,LiBr,5.09,2,225,cubic,2,"{'Li': 1.0, 'Br': 1.0}",41.89914213893865,"{'matrix': [[0.0, 2.756714, 2.756714], [2.756714, 0.0, 2.756714], [2.756714, 2.756714, 0.0]], 'a': 3.898582326383784, 'b': 3.898582326383784, 'c': 3.898582326383784, 'alpha': 59.99999999999999, 'beta': 59.99999999999999, 'gamma': 59.99999999999999, 'volume': 41.89914213893865}",3.4418250082704427,0.02550276000000018,NM,0.0004327,1.83,Li1Br1
145,mp-23268,NaI,3.5692000000000004,2,225,cubic,2,"{'Na': 1.0, 'I': 1.0}",69.6751221910064,"{'matrix': [[0.0, 3.265998, 3.265998], [3.265998, 0.0, 3.265998], [3.265998, 3.265998, 0.0]], 'a': 4.618818666283404, 'b': 4.618818666283404, 'c': 4.618818666283404, 'alpha': 60.00000000000001, 'beta': 60.00000000000001, 'gamma': 60.00000000000001, 'volume': 69.6751221910064}",3.5723689080929475,0.0,NM,0.0003867,1.8,Na1I1
146,mp-2597,InTe,0.0,2,225,cubic,2,"{'In': 1.0, 'Te': 1.0}",62.04396451824765,"{'matrix': [[0.0, 3.142123, 3.142123], [3.142123, 0.0, 3.142123], [3.142123, 3.142123, 0.0]], 'a': 4.443632961244437, 'b': 4.443632961244437, 'c': 4.443632961244437, 'alpha': 60.00000000000001, 'beta': 60.00000000000001, 'gamma': 60.00000000000001, 'volume': 62.04396451824765}",6.488053472608879,0.0,NM,0.0001824,1.7,In1Te1
147,mp-1096937,CuI,0.0,2,225,cubic,2,"{'Cu': 1.0, 'I': 1.0}",46.889910009516825,"{'matrix': [[0.0, 2.862089, 2.862089], [2.862089, 0.0, 2.862089], [2.862089, 2.862089, 0.0]], 'a': 4.047605080518849, 'b': 4.047605080518849, 'c': 4.047605080518849, 'alpha': 60.00000000000001, 'beta': 60.00000000000001, 'gamma': 60.00000000000001, 'volume': 46.889910009516825}",6.744530872913697,0.23810210250000052,NM,0.000364,1.68,Cu1I1
148,mp-34202,Bi2Te3,0.3861000000000008,2,166,trigonal,5,"{'Bi': 2.0, 'Te': 3.0}",178.03283666976503,"{'matrix': [[10.462767, -2.224745, 0.0], [10.462767, 2.224745, 0.0], [9.989709, 0.0, 3.824224]], 'a': 10.696680962397354, 'b': 10.696680962397354, 'c': 10.696680564869505, 'alpha': 24.00854422933675, 'beta': 24.00854422933675, 'gamma': 24.00854246677768, 'volume': 178.03283666976503}",7.468816518765769,0.0,NM,0.0162275,1.6,Bi2Te3
149,mp-1883,SnTe,0.6623999999999999,2,225,cubic,2,"{'Sn': 1.0, 'Te': 1.0}",66.06685541129963,"{'matrix': [[0.0, 3.208617, 3.208617], [3.208617, 0.0, 3.208617], [3.208617, 3.208617, 0.0]], 'a': 4.5376696778608725, 'b': 4.5376696778608725, 'c': 4.5376696778608725, 'alpha': 60.00000000000001, 'beta': 60.00000000000001, 'gamma': 60.00000000000001, 'volume': 66.06685541129963}",6.19081042904143,0.0,NM,0.0,1.5,Sn1Te1
150,mp-1321,CdSb,0.053199999999999914,2,61,orthorhombic,16,"{'Cd': 8.0, 'Sb': 8.0}",486.49864665154104,"{'matrix': [[6.599659, 0.0, 0.0], [0.0, 8.426983, 0.0], [0.0, 0.0, 8.747582]], 'a': 6.599659, 'b': 8.426983, 'c': 8.747582, 'alpha': 90.0, 'beta': 90.0, 'gamma': 90.0, 'volume': 486.49864665154104}",6.394263933783247,0.0,NM,8.99375e-05,1.5,Cd8Sb8
151,mp-5342,GaAgS2,0.9622000000000002,3,122,tetragonal,8,"{'Ga': 2.0, 'Ag': 2.0, 'S': 4.0}",177.6853322767803,"{'matrix': [[-2.893336, 2.893336, 5.306325], [2.893336, -2.893336, 5.306325], [2.893336, 2.893336, -5.306325]], 'a': 6.7007366328947, 'b': 6.7007366328947, 'c': 6.7007366328947, 'alpha': 128.83710378181667, 'beta': 128.83710378181667, 'gamma': 75.27282218026166, 'volume': 177.6853322767803}",4.517958693407411,0.0,NM,3.955e-05,1.45,Ag2Ga2S4
152,mp-541837,Bi2Se3,0.5434000000000001,2,166,trigonal,5,"{'Bi': 2.0, 'Se': 3.0}",154.10680097779445,"{'matrix': [[10.208949, -2.094883, 0.0], [10.208949, 2.094883, 0.0], [9.779078, 0.0, 3.60289]], 'a': 10.421668506927766, 'b': 10.421668506927766, 'c': 10.421668910600836, 'alpha': 23.192317655261373, 'beta': 23.192317655261373, 'gamma': 23.1923173888751, 'volume': 154.10680097779445}",7.056072307673697,0.0,NM,0.0031875,1.34,Bi2Se3
153,mp-862947,Ba2BiAu,0.4254000000000002,3,225,cubic,4,"{'Ba': 2.0, 'Bi': 1.0, 'Au': 1.0}",149.43683270065978,"{'matrix': [[0.0, 4.211879, 4.211879], [4.211879, 0.0, 4.211879], [4.211879, 4.211879, 0.0]], 'a': 5.956496404874429, 'b': 5.956496404874429, 'c': 5.956496404874429, 'alpha': 59.99999999999999, 'beta': 59.99999999999999, 'gamma': 59.99999999999999, 'volume': 149.43683270065978}",7.562824220546571,0.0,NM,6.8e-06,1.3,Ba2Au1Bi1
154,mp-22913,CuBr,0.48709999999999987,2,216,cubic,2,"{'Cu': 1.0, 'Br': 1.0}",46.274276519056215,"{'matrix': [[0.0, 2.849508, 2.849508], [2.849508, 0.0, 2.849508], [2.849508, 2.849508, 0.0]], 'a': 4.029812859690634, 'b': 4.029812859690634, 'c': 4.029812859690634, 'alpha': 60.00000000000001, 'beta': 60.00000000000001, 'gamma': 60.00000000000001, 'volume': 46.274276519056215}",5.147661876586553,0.0,NM,0.0002619,1.25,Cu1Br1
155,mp-971669,FeSb3,0.0,2,204,cubic,16,"{'Fe': 4.0, 'Sb': 12.0}",386.59697751626203,"{'matrix': [[-4.589156, 4.589156, 4.589156], [4.589156, -4.589156, 4.589156], [4.589156, 4.589156, -4.589156]], 'a': 7.948651355859559, 'b': 7.948651355859559, 'c': 7.948651355859559, 'alpha': 109.47122063449069, 'beta': 109.47122063449069, 'gamma': 109.47122063449069, 'volume': 386.59697751626203}",7.235385221215388,0.0,FM,0.98934555,1.14,Fe4Sb12
156,mp-866291,AgBr,1.1708,2,216,cubic,2,"{'Ag': 1.0, 'Br': 1.0}",63.40043985927066,"{'matrix': [[0.0, 3.164857, 3.164857], [3.164857, 0.0, 3.164857], [3.164857, 3.164857, 0.0]], 'a': 4.475783692371427, 'b': 4.475783692371427, 'c': 4.475783692371427, 'alpha': 60.00000000000001, 'beta': 60.00000000000001, 'gamma': 60.00000000000001, 'volume': 63.40043985927066}",4.917995433683658,0.0,NM,0.0,1.1,Ag1Br1
157,mp-614603,CsI,3.8556,2,225,cubic,2,"{'Cs': 1.0, 'I': 1.0}",121.35883085961832,"{'matrix': [[0.0, 3.929589, 3.929589], [3.929589, 0.0, 3.929589], [3.929589, 3.929589, 0.0]], 'a': 5.557278058352128, 'b': 5.557278058352128, 'c': 5.557278058352128, 'alpha': 59.99999999999999, 'beta': 59.99999999999999, 'gamma': 59.99999999999999, 'volume': 121.35883085961832}",3.554949583391213,0.0,NM,7.7e-06,1.1,Cs1I1
158,mp-22922,AgCl,1.2003,2,225,cubic,2,"{'Ag': 1.0, 'Cl': 1.0}",44.4328633677782,"{'matrix': [[0.0, 2.811198, 2.811198], [2.811198, 0.0, 2.811198], [2.811198, 2.811198, 0.0]], 'a': 3.9756343381161203, 'b': 3.9756343381161203, 'c': 3.9756343381161203, 'alpha': 60.00000000000001, 'beta': 60.00000000000001, 'gamma': 60.00000000000001, 'volume': 44.4328633677782}",5.356180845292489,0.0,NM,0.0001499,1.0,Ag1Cl1
159,mp-573697,CsCl,5.0172,2,225,cubic,2,"{'Cs': 1.0, 'Cl': 1.0}",88.04926423740011,"{'matrix': [[0.0, 3.531007, 3.531007], [3.531007, 0.0, 3.531007], [3.531007, 3.531007, 0.0]], 'a': 4.993597988234335, 'b': 4.993597988234335, 'c': 4.993597988234335, 'alpha': 59.99999999999999, 'beta': 59.99999999999999, 'gamma': 59.99999999999999, 'volume': 88.04926423740011}",3.1751064474369297,0.0,NM,0.0003245,1.0,Cs1Cl1
160,mp-571222,CsBr,4.4247,2,225,cubic,2,"{'Cs': 1.0, 'Br': 1.0}",101.39218929121083,"{'matrix': [[0.0, 3.701049, 3.701049], [3.701049, 0.0, 3.701049], [3.701049, 3.701049, 0.0]], 'a': 5.234073690807381, 'b': 5.234073690807381, 'c': 5.234073690807381, 'alpha': 60.00000000000001, 'beta': 60.00000000000001, 'gamma': 60.00000000000001, 'volume': 101.39218929121083}",3.485262633068681,0.0,NM,0.0,0.94,Cs1Br1
161,mp-22914,CuCl,0.8018000000000005,2,216,cubic,2,"{'Cu': 1.0, 'Cl': 1.0}",39.467388759312584,"{'matrix': [[0.0, 2.702316, 2.702316], [2.702316, 0.0, 2.702316], [2.702316, 2.702316, 0.0]], 'a': 3.821651937017813, 'b': 3.821651937017813, 'c': 3.821651937017813, 'alpha': 60.00000000000001, 'beta': 60.00000000000001, 'gamma': 60.00000000000001, 'volume': 39.467388759312584}",4.165254206627594,0.0022879324999989237,NM,0.00028,0.84,Cu1Cl1
162,mp-23262,Bi2O3,2.2487999999999992,2,14,monoclinic,20,"{'Bi': 8.0, 'O': 12.0}",341.5958974248394,"{'matrix': [[8.276447, 0.0, 0.0], [0.0, 5.933349, 0.0], [0.0, 2.877331, 6.956148]], 'a': 8.276447, 'b': 5.933349, 'c': 7.527750572479471, 'alpha': 67.52812650510226, 'beta': 90.0, 'gamma': 90.0, 'volume': 341.5958974248394}",9.060332735455225,0.0,NM,3.75e-07,0.8,Bi4O6
163,mp-647164,Cu12Sb4S13,0.0,3,217,cubic,29,"{'Cu': 12.0, 'Sb': 4.0, 'S': 13.0}",554.4907086142858,"{'matrix': [[-5.17541, 5.17541, 5.17541], [5.17541, -5.17541, 5.17541], [5.17541, 5.17541, -5.17541]], 'a': 8.964073070000044, 'b': 8.964073070000044, 'c': 8.964073070000044, 'alpha': 109.47122063449069, 'beta': 109.47122063449069, 'gamma': 109.47122063449069, 'volume': 554.4907086142858}",4.990496139138391,0.0,FM,0.9897546,0.7,Cu12Sb4S13
164,mp-2693,SnSe,0.8203000000000005,2,225,cubic,2,"{'Sn': 1.0, 'Se': 1.0}",55.78456531722823,"{'matrix': [[0.0, 3.03269, 3.03269], [3.03269, 0.0, 3.03269], [3.03269, 3.03269, 0.0]], 'a': 4.288871328473262, 'b': 4.288871328473262, 'c': 4.288871328473262, 'alpha': 60.00000000000001, 'beta': 60.00000000000001, 'gamma': 60.00000000000001, 'volume': 55.78456531722823}",5.884042573931294,0.0026318937500002804,NM,0.0018593,0.62,Sn1Se1
165,mp-2136,Sb2O3,2.2308000000000003,2,56,orthorhombic,20,"{'Sb': 8.0, 'O': 12.0}",361.53167005083327,"{'matrix': [[5.192915, 0.0, 0.0], [0.0, 5.515491, 0.0], [0.0, 0.0, 12.622662]], 'a': 5.192915, 'b': 5.515491, 'c': 12.622662, 'alpha': 90.0, 'beta': 90.0, 'gamma': 90.0, 'volume': 361.53167005083327}",5.355850121311344,0.0,NM,0.00016235,0.4,Sb4O6
166,mp-27381,CsSnI3,2.0701,3,62,orthorhombic,20,"{'Cs': 4.0, 'Sn': 4.0, 'I': 12.0}",944.0164042171971,"{'matrix': [[4.83229, 0.0, 0.0], [0.0, 10.765026, 0.0], [0.0, 0.0, 18.147277]], 'a': 4.83229, 'b': 10.765026, 'c': 18.147277, 'alpha': 90.0, 'beta': 90.0, 'gamma': 90.0, 'volume': 944.0164042171971}",4.449103949605024,0.0032493384999998653,NM,0.000319825,0.38,Cs4Sn4I12
167,mp-22893,PbI2,2.3703,2,164,trigonal,3,"{'Pb': 1.0, 'I': 2.0}",142.89371196996424,"{'matrix': [[2.34471, -4.061157, 0.0], [2.34471, 4.061157, 0.0], [0.0, 0.0, 7.50316]], 'a': 4.689420130757, 'b': 4.689420130757, 'c': 7.50316, 'alpha': 90.0, 'beta': 90.0, 'gamma': 120.0000018447512, 'volume': 142.89371196996424}",5.357292104517277,0.0009393424999992739,NM,0.001252,0.315,Pb1I2
168,mp-1239,Sb3Ir,0.5268999999999995,2,204,cubic,16,"{'Sb': 12.0, 'Ir': 4.0}",414.57854850872246,"{'matrix': [[-4.697307, 4.697307, 4.697307], [4.697307, -4.697307, 4.697307], [4.697307, 4.697307, -4.697307]], 'a': 8.135974382748941, 'b': 8.135974382748941, 'c': 8.135974382748941, 'alpha': 109.47122063449069, 'beta': 109.47122063449069, 'gamma': 109.47122063449069, 'volume': 414.57854850872246}",8.931919428463367,0.0,NM,9.275e-06,0.12,Ir4Sb12
169,mp-1459,TaN,0.0,2,187,hexagonal,2,"{'Ta': 1.0, 'N': 1.0}",21.927183971656174,"{'matrix': [[1.47702, -2.558274, 0.0], [1.47702, 2.558274, 0.0], [0.0, 0.0, 2.901479]], 'a': 2.954040273841235, 'b': 2.954040273841235, 'c': 2.901479, 'alpha': 90.0, 'beta': 90.0, 'gamma': 120.00000613302066, 'volume': 21.927183971656174}",14.763851879979619,0.027610303333343467,NM,3.12e-05,995.0,Ta1N1