,task_id,pretty_formula,band_gap,nelements,spacegroup.number,spacegroup.crystal_system,nsites,unit_cell_formula,volume,structure.lattice,density,e_above_hull,magnetic_type,total_magnetization,thermal,formula
96,mp-10694,ScF3,6.11,2,221,cubic,4,"{'Sc': 1.0, 'F': 3.0}",67.39877022543207,"{'matrix': [[4.06959, 0.0, 0.0], [0.0, 4.06959, 0.0], [0.0, 0.0, 4.06959]], 'a': 4.06959, 'b': 4.06959, 'c': 4.06959, 'alpha': 90.0, 'beta': 90.0, 'gamma': 90.0, 'volume': 67.39877022543207}",2.5118235797810775,0.0,NM,4.02e-05,10.5,Sc1F3
97,mp-665,SnSe2,0.8000000000000003,2,164,trigonal,3,"{'Sn': 1.0, 'Se': 2.0}",89.70901303326058,"{'matrix': [[1.93664, -3.354359, 0.0], [1.93664, 3.354359, 0.0], [0.0, 0.0, 6.904745]], 'a': 3.8732801074129664, 'b': 3.8732801074129664, 'c': 6.904745, 'alpha': 90.0, 'beta': 90.0, 'gamma': 120.00000183472004, 'volume': 89.70901303326058}",5.12049911666342,0.0,NM,0.0068583,10.5,Sn1Se2
98,mp-1317,CoSb3,0.5821000000000005,2,204,cubic,16,"{'Co': 4.0, 'Sb': 12.0}",378.67996384911737,"{'matrix': [[-4.557613, 4.557613, 4.557613], [4.557613, -4.557613, 4.557613], [4.557613, 4.557613, -4.557613]], 'a': 7.894017277236414, 'b': 7.894017277236414, 'c': 7.894017277236414, 'alpha': 109.47122063449069, 'beta': 109.47122063449069, 'gamma': 109.47122063449069, 'volume': 378.67996384911737}",7.44082233139091,0.0,NM,0.0002189,10.0,Co4Sb12
99,mp-19006,MnO,0.19930000000000003,2,225,cubic,4,"{'Mn': 2.0, 'O': 2.0}",45.386638186518894,"{'matrix': [[-2.768974, -5e-05, -1.598707], [1.845949, -2.610658, -2.3e-05], [-3.64722, -2.579038, 3.119833]], 'a': 3.1973553269890105, 'b': 3.197352483554793, 'c': 5.448578592782984, 'alpha': 89.99890704028832, 'beta': 72.93785178320344, 'gamma': 119.9979387273883, 'volume': 45.386638186518894}",5.1907082530856865,0.0,AFM,0.0,10.0,Mn2O2
100,mp-2472,SrO,3.4486999999999997,2,225,cubic,2,"{'Sr': 1.0, 'O': 1.0}",35.27691022191445,"{'matrix': [[0.0, 2.603076, 2.603076], [2.603076, 0.0, 2.603076], [2.603076, 2.603076, 0.0]], 'a': 3.681305383087907, 'b': 3.681305383087907, 'c': 3.681305383087907, 'alpha': 59.99999999999999, 'beta': 59.99999999999999, 'gamma': 59.99999999999999, 'volume': 35.27691022191445}",4.877526423806916,0.0,NM,0.0,10.0,Sr1O1
101,mp-2242,GeS,1.237,2,62,orthorhombic,8,"{'Ge': 4.0, 'S': 4.0}",175.8656429001093,"{'matrix': [[3.665881, 0.0, 0.0], [0.0, 4.454533, 0.0], [0.0, 0.0, 10.769622]], 'a': 3.665881, 'b': 4.454533, 'c': 10.769622, 'alpha': 90.0, 'beta': 90.0, 'gamma': 90.0, 'volume': 175.8656429001093}",3.954535749023095,0.0,NM,0.00013215,10.0,Ge4S4
102,mp-1219182,SiGe,0.8585000000000003,2,216,cubic,2,"{'Si': 1.0, 'Ge': 1.0}",43.74092648009269,"{'matrix': [[0.0, 2.796529, 2.796529], [2.796529, 0.0, 2.796529], [2.796529, 2.796529, 0.0]], 'a': 3.954889239369669, 'b': 3.954889239369669, 'c': 3.954889239369669, 'alpha': 59.99999999999999, 'beta': 59.99999999999999, 'gamma': 59.99999999999999, 'volume': 43.74092648009269}",3.823847394474847,0.06024184750000039,NM,4.25e-05,10.0,Si1Ge1
103,mp-408,Mg2Ge,0.25050000000000017,2,225,cubic,3,"{'Mg': 2.0, 'Ge': 1.0}",66.32025586961251,"{'matrix': [[0.0, 3.212714, 3.212714], [3.212714, 0.0, 3.212714], [3.212714, 3.212714, 0.0]], 'a': 4.5434637108259155, 'b': 4.5434637108259155, 'c': 4.5434637108259155, 'alpha': 59.99999999999999, 'beta': 59.99999999999999, 'gamma': 59.99999999999999, 'volume': 66.32025586961251}",3.0358803533733467,0.0,NM,0.0007279,9.3,Mg2Ge1
104,mp-924130,TiNiSn,0.4527000000000001,3,216,cubic,3,"{'Ti': 1.0, 'Ni': 1.0, 'Sn': 1.0}",51.737936260109635,"{'matrix': [[0.0, 2.957511, 2.957511], [2.957511, 0.0, 2.957511], [2.957511, 2.957511, 0.0]], 'a': 4.182552167067614, 'b': 4.182552167067614, 'c': 4.182552167067614, 'alpha': 60.00000000000001, 'beta': 60.00000000000001, 'gamma': 60.00000000000001, 'volume': 51.737936260109635}",7.23009703881482,0.0,NM,2.5e-06,9.3,Ti1Ni1Sn1
105,mp-1132,CdO,0.0,2,225,cubic,2,"{'Cd': 1.0, 'O': 1.0}",27.367291401313242,"{'matrix': [[0.0, 2.39185, 2.39185], [2.39185, 0.0, 2.39185], [2.39185, 2.39185, 0.0]], 'a': 3.382586709162087, 'b': 3.382586709162087, 'c': 3.382586709162087, 'alpha': 60.00000000000001, 'beta': 60.00000000000001, 'gamma': 60.00000000000001, 'volume': 27.367291401313242}",7.791435499806187,0.0,NM,4e-07,9.0,Cd1O1
106,mp-924129,ZrNiSn,0.5202,3,216,cubic,3,"{'Zr': 1.0, 'Ni': 1.0, 'Sn': 1.0}",58.51138849215193,"{'matrix': [[0.0, 3.08132, 3.08132], [3.08132, 0.0, 3.08132], [3.08132, 3.08132, 0.0]], 'a': 4.357644534011465, 'b': 4.357644534011465, 'c': 4.357644534011465, 'alpha': 60.00000000000001, 'beta': 60.00000000000001, 'gamma': 60.00000000000001, 'volume': 58.51138849215193}",7.623580700345458,0.0,NM,7.5e-06,8.8,Ni1Sn1Zr1
107,mp-2741,CaF2,7.2479,2,225,cubic,3,"{'Ca': 1.0, 'F': 2.0}",41.95899365917049,"{'matrix': [[0.0, 2.758026, 2.758026], [2.758026, 0.0, 2.758026], [2.758026, 2.758026, 0.0]], 'a': 3.9004377745776178, 'b': 3.9004377745776178, 'c': 3.9004377745776178, 'alpha': 59.99999999999999, 'beta': 59.99999999999999, 'gamma': 59.99999999999999, 'volume': 41.95899365917049}",3.0898325922098566,0.0,NM,3.49e-05,8.6,Ca1F2
108,mp-4651,SrTiO3,1.8583000000000003,3,140,tetragonal,10,"{'Sr': 2.0, 'Ti': 2.0, 'O': 6.0}",122.55854213516308,"{'matrix': [[-2.783864, 2.783864, 3.953553], [2.783864, -2.783864, 3.953553], [2.783864, 2.783864, -3.953553]], 'a': 5.579460445670441, 'b': 5.579460445670441, 'c': 5.579460445670441, 'alpha': 120.13907092098805, 'beta': 120.13907092098805, 'gamma': 89.75929040698281, 'volume': 122.55854213516308}",4.972062125329374,0.0,NM,5.595e-05,8.5,Sr2Ti2O6
109,mp-1367,Mg2Si,0.29349999999999987,2,225,cubic,3,"{'Mg': 2.0, 'Si': 1.0}",64.4718956285029,"{'matrix': [[0.0, 3.182586, 3.182586], [3.182586, 0.0, 3.182586], [3.182586, 3.182586, 0.0]], 'a': 4.500856284618739, 'b': 4.500856284618739, 'c': 4.500856284618739, 'alpha': 59.99999999999999, 'beta': 59.99999999999999, 'gamma': 59.99999999999999, 'volume': 64.4718956285029}",1.975370395749873,0.0,NM,0.0001926,8.2,Mg2Si1
110,mp-546794,SiO2,5.851,2,122,tetragonal,6,"{'Si': 2.0, 'O': 4.0}",94.26185405895745,"{'matrix': [[-2.52815, 2.52815, 3.686976], [2.52815, -2.52815, 3.686976], [2.52815, 2.52815, -3.686976]], 'a': 5.135842371955744, 'b': 5.135842371955744, 'c': 5.135842371955744, 'alpha': 121.02203993798008, 'beta': 121.02203993798008, 'gamma': 88.23870670865517, 'volume': 94.26185405895745}",2.116918417006954,0.0,NM,4.1e-06,8.0,Si2O4
111,mp-1018040,MgSe,2.5791,2,186,hexagonal,4,"{'Mg': 2.0, 'Se': 2.0}",107.89646344261384,"{'matrix': [[2.126904, -3.683906, 0.0], [2.126904, 3.683906, 0.0], [0.0, 0.0, 6.885267]], 'a': 4.253808181153918, 'b': 4.253808181153918, 'c': 6.885267, 'alpha': 90.0, 'beta': 90.0, 'gamma': 120.00000281748638, 'volume': 107.89646344261384}",3.1785206158059203,0.0,NM,0.00013075,7.69,Mg2Se2
112,mp-406,CdTe,1.2285,2,216,cubic,2,"{'Cd': 1.0, 'Te': 1.0}",72.82718102978095,"{'matrix': [[0.0, 3.314524, 3.314524], [3.314524, 0.0, 3.314524], [3.314524, 3.314524, 0.0]], 'a': 4.687444793611121, 'b': 4.687444793611121, 'c': 4.687444793611121, 'alpha': 60.00000000000001, 'beta': 60.00000000000001, 'gamma': 60.00000000000001, 'volume': 72.82718102978095}",5.472512271905128,0.0,NM,0.0016615,7.5,Cd1Te1
113,mp-23193,KCl,5.0448,2,225,cubic,2,"{'K': 1.0, 'Cl': 1.0}",65.03323740347665,"{'matrix': [[0.0, 3.191796, 3.191796], [3.191796, 0.0, 3.191796], [3.191796, 3.191796, 0.0]], 'a': 4.513881191528196, 'b': 4.513881191528196, 'c': 4.513881191528196, 'alpha': 60.00000000000001, 'beta': 60.00000000000001, 'gamma': 60.00000000000001, 'volume': 65.03323740347665}",1.9035704058183411,0.0,NM,0.0001108,7.1,K1Cl1
114,mp-2343,Mg2Sn,0.0,2,225,cubic,3,"{'Mg': 2.0, 'Sn': 1.0}",79.1866975886188,"{'matrix': [[0.0, 3.408323, 3.408323], [3.408323, 0.0, 3.408323], [3.408323, 3.408323, 0.0]], 'a': 4.820096611548155, 'b': 4.820096611548155, 'c': 4.820096611548155, 'alpha': 60.00000000000001, 'beta': 60.00000000000001, 'gamma': 60.00000000000001, 'volume': 79.1866975886188}",3.508687760498868,0.0,NM,0.0012246,7.1,Mg2Sn1
115,mp-22862,NaCl,5.145099999999999,2,225,cubic,2,"{'Na': 1.0, 'Cl': 1.0}",46.09614833243692,"{'matrix': [[0.0, 2.845847, 2.845847], [2.845847, 0.0, 2.845847], [2.845847, 2.845847, 0.0]], 'a': 4.024635423838785, 'b': 4.024635423838785, 'c': 4.024635423838785, 'alpha': 60.00000000000001, 'beta': 60.00000000000001, 'gamma': 60.00000000000001, 'volume': 46.09614833243692}",2.1053060843576104,0.0,NM,5.08e-05,7.1,Na1Cl1
116,mp-924128,HfNiSn,0.4347000000000003,3,216,cubic,3,"{'Hf': 1.0, 'Ni': 1.0, 'Sn': 1.0}",57.15171262001417,"{'matrix': [[0.0, 3.057265, 3.057265], [3.057265, 0.0, 3.057265], [3.057265, 3.057265, 0.0]], 'a': 4.323625626768581, 'b': 4.323625626768581, 'c': 4.323625626768581, 'alpha': 60.00000000000001, 'beta': 60.00000000000001, 'gamma': 60.00000000000001, 'volume': 57.15171262001417}",10.340458179693195,0.0,NM,0.000865,6.7,Hf1Ni1Sn1
117,mp-463,KF,6.0694,2,225,cubic,2,"{'K': 1.0, 'F': 1.0}",39.892863219729406,"{'matrix': [[0.0, 2.711992, 2.711992], [2.711992, 0.0, 2.711992], [2.711992, 2.711992, 0.0]], 'a': 3.8353358674473346, 'b': 3.8353358674473346, 'c': 3.8353358674473346, 'alpha': 59.99999999999999, 'beta': 59.99999999999999, 'gamma': 59.99999999999999, 'volume': 39.892863219729406}",2.4182732829403464,0.0,NM,1e-06,6.43,K1F1
118,mp-5238,GaCuS2,0.7026000000000003,3,122,tetragonal,8,"{'Ga': 2.0, 'Cu': 2.0, 'S': 4.0}",153.2742792826676,"{'matrix': [[-2.684865, 2.684865, 5.315748], [2.684865, -2.684865, 5.315748], [2.684865, 2.684865, -5.315748]], 'a': 6.532547507362959, 'b': 6.532547507362959, 'c': 6.532547507362959, 'alpha': 131.46489393331353, 'beta': 131.46489393331353, 'gamma': 71.07549317307759, 'volume': 153.2742792826676}",4.277152732237182,0.0,NM,3.5e-07,5.09,Ga2Cu2S4
119,mp-361,Cu2O,0.5126999999999997,2,224,cubic,6,"{'Cu': 4.0, 'O': 2.0}",78.83290124625067,"{'matrix': [[4.287813, 0.0, 0.0], [0.0, 4.287813, 0.0], [0.0, 0.0, 4.287813]], 'a': 4.287813, 'b': 4.287813, 'c': 4.287813, 'alpha': 90.0, 'beta': 90.0, 'gamma': 90.0, 'volume': 78.83290124625067}",6.028164790035252,0.0,NM,0.01225915,5.0,Cu4O2
120,mp-1253,BaSe,2.2121000000000004,2,225,cubic,2,"{'Ba': 1.0, 'Se': 1.0}",74.74111078246291,"{'matrix': [[0.0, 3.343309, 3.343309], [3.343309, 0.0, 3.343309], [3.343309, 3.343309, 0.0]], 'a': 4.72815293100403, 'b': 4.72815293100403, 'c': 4.72815293100403, 'alpha': 59.99999999999999, 'beta': 59.99999999999999, 'gamma': 59.99999999999999, 'volume': 74.74111078246291}",4.805294025439946,0.0,NM,9.6e-05,4.68,Ba1Se1
121,mp-20459,TiPbO3,1.9569,3,99,tetragonal,5,"{'Ti': 1.0, 'Pb': 1.0, 'O': 3.0}",68.98476581295094,"{'matrix': [[3.861215, 0.0, 0.0], [0.0, 3.861215, 0.0], [0.0, 0.0, 4.627061]], 'a': 3.861215, 'b': 3.861215, 'c': 4.627061, 'alpha': 90.0, 'beta': 90.0, 'gamma': 90.0, 'volume': 68.98476581295094}",7.29511216565533,0.0,NM,0.0002097,4.0,Pb1Ti1O3
122,mp-23152,Bi,0.0,1,166,trigonal,2,{'Bi': 2.0},73.45577219694691,"{'matrix': [[4.207773, -2.304793, 0.0], [4.207773, 2.304793, 0.0], [2.94533, 0.0, 3.787143]], 'a': 4.7976477978669925, 'b': 4.7976477978669925, 'c': 4.797647435082011, 'alpha': 57.423146938351614, 'beta': 57.423146938351614, 'gamma': 57.42314144558041, 'volume': 73.45577219694691}",9.44840978387041,0.0,NM,0.0001038,4.0,Bi2
123,mp-22867,RbBr,4.3724,2,225,cubic,2,"{'Rb': 1.0, 'Br': 1.0}",86.78052839266779,"{'matrix': [[0.0, 3.513965, 3.513965], [3.513965, 0.0, 3.513965], [3.513965, 3.513965, 0.0]], 'a': 4.969496960704372, 'b': 4.969496960704372, 'c': 4.969496960704372, 'alpha': 60.00000000000001, 'beta': 60.00000000000001, 'gamma': 60.00000000000001, 'volume': 86.78052839266779}",3.1643773032979565,0.0,NM,0.0001711,3.8,Rb1Br1
124,mp-753,ZnSb,0.07649999999999935,2,61,orthorhombic,16,"{'Zn': 8.0, 'Sb': 8.0}",404.68366137467774,"{'matrix': [[6.283872, 0.0, 0.0], [0.0, 7.822845, 0.0], [0.0, 0.0, 8.232346]], 'a': 6.283872, 'b': 7.822845, 'c': 8.232346, 'alpha': 90.0, 'beta': 90.0, 'gamma': 90.0, 'volume': 404.68366137467774}",6.1440866774939815,0.0,NM,4.625e-07,3.5,Zn8Sb8
125,mp-23251,KBr,4.5151,2,225,cubic,2,"{'K': 1.0, 'Br': 1.0}",75.29435878270051,"{'matrix': [[0.0, 3.351538, 3.351538], [3.351538, 0.0, 3.351538], [3.351538, 3.351538, 0.0]], 'a': 4.7397904944087985, 'b': 4.7397904944087985, 'c': 4.7397904944087985, 'alpha': 60.00000000000001, 'beta': 60.00000000000001, 'gamma': 60.00000000000001, 'volume': 75.29435878270051}",2.624472422104685,0.0,NM,2.8e-06,3.4,K1Br1
126,mp-1214046,Ca3Si4,0.4162000000000008,2,176,hexagonal,42,"{'Ca': 18.0, 'Si': 24.0}",942.8738216570208,"{'matrix': [[4.273558, -7.402019, 0.0], [4.273558, 7.402019, 0.0], [0.0, 0.0, 14.903346]], 'a': 8.547115493295092, 'b': 8.547115493295092, 'c': 14.903346, 'alpha': 90.0, 'beta': 90.0, 'gamma': 119.9999960778198, 'volume': 942.8738216570208}",2.457602651062123,0.0021037711904758893,NM,0.0005147,3.2,Ca18Si24
127,mp-2231,SnS,1.1111000000000004,2,62,orthorhombic,8,"{'Sn': 4.0, 'S': 4.0}",204.37625934004453,"{'matrix': [[4.023972, 0.0, 0.0], [0.0, 4.442511, 0.0], [0.0, 0.0, 11.432652]], 'a': 4.023972, 'b': 4.442511, 'c': 11.432652, 'alpha': 90.0, 'beta': 90.0, 'gamma': 90.0, 'volume': 204.37625934004453}",4.9001342636386935,0.0,NM,0.0014024,3.1,Sn4S4
128,mp-820,HgSe,0.12360000000000004,2,216,cubic,2,"{'Hg': 1.0, 'Se': 1.0}",61.7493103707798,"{'matrix': [[0.0, 3.137141, 3.137141], [3.137141, 0.0, 3.137141], [3.137141, 3.137141, 0.0]], 'a': 4.436587349276694, 'b': 4.436587349276694, 'c': 4.436587349276694, 'alpha': 60.00000000000001, 'beta': 60.00000000000001, 'gamma': 60.00000000000001, 'volume': 61.7493103707798}",7.517552718899584,0.0,NM,4.84e-05,3.0,Hg1Se1
129,mp-1039,MgTe,2.3619999999999997,2,186,hexagonal,4,"{'Mg': 2.0, 'Te': 2.0}",138.26178168678,"{'matrix': [[2.30544, -3.99314, 0.0], [2.30544, 3.99314, 0.0], [0.0, 0.0, 7.509375]], 'a': 4.61088068086781, 'b': 4.61088068086781, 'c': 7.509375, 'alpha': 90.0, 'beta': 90.0, 'gamma': 120.00000976946787, 'volume': 138.26178168678}",3.648791210911923,0.0,NM,3.46e-05,3.0,Mg2Te2
130,mp-21276,PbS,0.9925999999999995,2,225,cubic,2,"{'Pb': 1.0, 'S': 1.0}",54.174229046081315,"{'matrix': [[0.0, 3.003223, 3.003223], [3.003223, 0.0, 3.003223], [3.003223, 3.003223, 0.0]], 'a': 4.2471986974308145, 'b': 4.2471986974308145, 'c': 4.2471986974308145, 'alpha': 60.00000000000001, 'beta': 60.00000000000001, 'gamma': 60.00000000000001, 'volume': 54.174229046081315}",7.333909254750865,0.0,NM,0.0001476,2.9,Pb1S1
131,mp-22916,NaBr,4.0895,2,225,cubic,2,"{'Na': 1.0, 'Br': 1.0}",54.748524180331046,"{'matrix': [[0.0, 3.013798, 3.013798], [3.013798, 0.0, 3.013798], [3.013798, 3.013798, 0.0]], 'a': 4.262154005852909, 'b': 4.262154005852909, 'c': 4.262154005852909, 'alpha': 60.00000000000001, 'beta': 60.00000000000001, 'gamma': 60.00000000000001, 'volume': 54.748524180331046}",3.120798709320274,0.0,NM,0.0002847,2.8,Na1Br1
132,mp-23295,RbCl,5.0161999999999995,2,225,cubic,2,"{'Rb': 1.0, 'Cl': 1.0}",75.14793306985507,"{'matrix': [[0.0, 3.349364, 3.349364], [3.349364, 0.0, 3.349364], [3.349364, 3.349364, 0.0]], 'a': 4.736715994124199, 'b': 4.736715994124199, 'c': 4.736715994124199, 'alpha': 60.00000000000001, 'beta': 60.00000000000001, 'gamma': 60.00000000000001, 'volume': 75.14793306985507}",2.671979177096913,0.0,NM,0.0003388,2.8,Rb1Cl1
133,mp-22898,KI,4.0433,2,225,cubic,2,"{'K': 1.0, 'I': 1.0}",92.7433338439933,"{'matrix': [[0.0, 3.592672, 3.592672], [3.592672, 0.0, 3.592672], [3.592672, 3.592672, 0.0]], 'a': 5.080805467558072, 'b': 5.080805467558072, 'c': 5.080805467558072, 'alpha': 60.00000000000001, 'beta': 60.00000000000001, 'gamma': 60.00000000000001, 'volume': 92.7433338439933}",2.972225316080415,0.0,NM,0.0002958,2.6,KI
134,mp-2730,HgTe,0.0,2,216,cubic,2,"{'Hg': 1.0, 'Te': 1.0}",73.86531493784373,"{'matrix': [[0.0, 3.330199, 3.330199], [3.330199, 0.0, 3.330199], [3.330199, 3.330199, 0.0]], 'a': 4.709612591201319, 'b': 4.709612591201319, 'c': 4.709612591201319, 'alpha': 60.00000000000001, 'beta': 60.00000000000001, 'gamma': 60.00000000000001, 'volume': 73.86531493784373}",7.377919077797716,0.0,NM,0.0001411,2.5,Hg1Te1
135,mp-19717,TePb,1.0581999999999994,2,225,cubic,2,"{'Te': 1.0, 'Pb': 1.0}",70.75839192630549,"{'matrix': [[0.0, 3.282837, 3.282837], [3.282837, 0.0, 3.282837], [3.282837, 3.282837, 0.0]], 'a': 4.642632608460204, 'b': 4.642632608460204, 'c': 4.642632608460204, 'alpha': 60.00000000000001, 'beta': 60.00000000000001, 'gamma': 60.00000000000001, 'volume': 70.75839192630549}",7.856997090559908,0.0,NM,0.0014838,2.5,Te1Pb1
136,mp-1201,Sb2Te3,0.16110000000000024,2,166,trigonal,5,"{'Sb': 2.0, 'Te': 3.0}",169.89340676713044,"{'matrix': [[10.52423, -2.166418, 0.0], [10.52423, 2.166418, 0.0], [10.078272, 0.0, 3.725752]], 'a': 10.744895720462996, 'b': 10.744895720462996, 'c': 10.744896205710319, 'alpha': 23.26376926217326, 'beta': 23.26376926217326, 'gamma': 23.263766244534768, 'volume': 169.89340676713044}",6.121655030547824,0.0,NM,0.000158,2.4,Sb2Te3
137,mp-1342,BaO,2.2561,2,225,cubic,2,"{'Ba': 1.0, 'O': 1.0}",44.25500294484119,"{'matrix': [[0.0, 2.807442, 2.807442], [2.807442, 0.0, 2.807442], [2.807442, 2.807442, 0.0]], 'a': 3.9703225519758467, 'b': 3.9703225519758467, 'c': 3.9703225519758467, 'alpha': 60.00000000000001, 'beta': 60.00000000000001, 'gamma': 60.00000000000001, 'volume': 44.25500294484119}",5.753123041444008,0.0,NM,0.0010415,2.3,Ba1O1
138,mp-19717,TePb,1.0581999999999994,2,225,cubic,2,"{'Te': 1.0, 'Pb': 1.0}",70.75839192630549,"{'matrix': [[0.0, 3.282837, 3.282837], [3.282837, 0.0, 3.282837], [3.282837, 3.282837, 0.0]], 'a': 4.642632608460204, 'b': 4.642632608460204, 'c': 4.642632608460204, 'alpha': 60.00000000000001, 'beta': 60.00000000000001, 'gamma': 60.00000000000001, 'volume': 70.75839192630549}",7.856997090559908,0.0,NM,0.0014838,2.3,Pb1Te1
139,mp-22903,RbI,3.9541000000000004,2,225,cubic,2,"{'Rb': 1.0, 'I': 1.0}",104.95708590502805,"{'matrix': [[0.0, 3.743926, 3.743926], [3.743926, 0.0, 3.743926], [3.743926, 3.743926, 0.0]], 'a': 5.294710925721252, 'b': 5.294710925721252, 'c': 5.294710925721252, 'alpha': 59.99999999999999, 'beta': 59.99999999999999, 'gamma': 59.99999999999999, 'volume': 104.95708590502805}",3.3599680093693327,0.0,NM,0.0,2.3,Rb1I1
140,mp-11718,RbF,5.6523,2,225,cubic,2,"{'Rb': 1.0, 'F': 1.0}",47.25312346503708,"{'matrix': [[0.0, 2.86946, 2.86946], [2.86946, 0.0, 2.86946], [2.86946, 2.86946, 0.0]], 'a': 4.0580292486871015, 'b': 4.0580292486871015, 'c': 4.0580292486871015, 'alpha': 60.00000000000001, 'beta': 60.00000000000001, 'gamma': 60.00000000000001, 'volume': 47.25312346503708}",3.6710845512958685,0.0,NM,2.5e-06,2.27,Rb1F1
141,mp-3839,GaCuTe2,0.5549,3,122,tetragonal,8,"{'Ga': 2.0, 'Cu': 2.0, 'Te': 4.0}",225.14192457353113,"{'matrix': [[-3.04353, 3.04353, 6.076328], [3.04353, -3.04353, 6.076328], [3.04353, 3.04353, -6.076328]], 'a': 7.44633545345521, 'b': 7.44633545345521, 'c': 7.44633545345521, 'alpha': 131.75001960434076, 'beta': 131.75001960434076, 'gamma': 70.62413143379234, 'volume': 225.14192457353113}",5.730322789813026,0.0,NM,3.79e-05,2.2,Ga2Cu2Te4
142,mp-2201,PbSe,0.9081000000000001,2,225,cubic,2,"{'Pb': 1.0, 'Se': 1.0}",60.253710492428276,"{'matrix': [[0.0, 3.111606, 3.111606], [3.111606, 0.0, 3.111606], [3.111606, 3.111606, 0.0]], 'a': 4.400475405961497, 'b': 4.400475405961497, 'c': 4.400475405961497, 'alpha': 60.00000000000001, 'beta': 60.00000000000001, 'gamma': 60.00000000000001, 'volume': 60.253710492428276}",7.886316965624365,0.0,NM,0.0018509,2.0,Pb1Se1
143,mp-1227290,BiSb,0.10559999999999992,2,160,trigonal,2,"{'Bi': 1.0, 'Sb': 1.0}",69.16578082806613,"{'matrix': [[4.153508, -2.249653, 0.0], [4.153508, 2.249653, 0.0], [2.935035, 0.0, 3.701099]], 'a': 4.72361803350705, 'b': 4.72361803350705, 'c': 4.723617708814506, 'alpha': 56.882356067882505, 'beta': 56.882356067882505, 'gamma': 56.88236252193877, 'volume': 69.16578082806613}",7.940448998445383,0.0,NM,0.0006589,2.0,Bi1Sb1